# vtk DataFile Version 3.0
Randomized Fields
ASCII
DATASET STRUCTURED_POINTS
DIMENSIONS 16 16 16
ORIGIN 0 0 0
SPACING 1 1 1
POINT_DATA 4096
SCALARS pressure double 1
LOOKUP_TABLE default
-0.73564102598
-0.955474550231
0.582918022608
-0.0437089917875
0.40388366752
-0.478513453389
-0.379132318634
-0.00941696105583
-0.336848145977
-0.0118026969814
-0.866523353014
0.0296698700589
0.535241955416
0.0855371237633
0.0457529873344
-0.202777354609
-0.841580491885
0.518282003458
-0.758337280378
0.376418251771
0.281131997649
0.774877330467
-0.0848490845957
0.195499652698
-0.775217319637
-0.78308248281
0.151898409602
0.941029224393
-0.107339286915
0.884463205821
-0.741656317921
0.69970008508
0.105840636922
-0.992063868155
0.80451995689
0.70995309376
0.215664232477
-0.629768776745
0.698241977949
-0.890649206465
-0.0327114466757
0.730515434698
0.507463535123
-0.326177768292
-0.717435889703
0.646174374058
0.56387165545
-0.803701803939
-0.0659361196124
0.916708293174
0.583255708603
-0.347176102763
0.719473515059
0.83920105444
0.642757840511
-0.825859290475
-0.706989956608
0.526383410385
-0.159661054595
0.375626782244
-0.276302092265
-0.662882328184
-0.0447366871639
0.544906787171
0.910986453938
-0.643868820313
0.879626230162
-0.179983779925
-0.28158806049
0.3255854216
0.696761218177
-0.589616453319
0.0233096630863
0.527135913313
0.469140996221
0.665219794883
0.29694256046
0.69048712406
0.508029458147
-0.427315658466
0.284385418382
-0.149468824508
-0.141252788293
0.96887021985
0.861970075067
0.0582870536852
0.593140274412
-0.144751211411
0.885253573698
0.867792084902
-0.347372708688
-0.0820422050842
-0.906840210655
-0.944091332851
0.339534601955
-0.220335425293
0.0283553169582
-0.0600203017814
0.389853979256
-0.84065745643
-0.930459969843
0.322128799013
0.505545779856
0.670466784124
-0.0760346818824
-0.0210108396568
-0.144922506156
0.514649116914
0.215442783405
-0.522943725664
-0.167776746686
0.266083912632
0.0428600810832
0.86645838646
-0.692566165728
0.902403418987
-0.316174157044
0.814632989533
0.0713523378947
0.622596806737
-0.542993372119
0.550792135376
-0.916207936189
-0.720749249648
0.886375333098
0.974828673496
-0.935586103242
0.887087681449
0.941724466162
0.245272960127
-0.939120571669
0.524862899549
-0.402156249021
0.265450107175
-0.908808539137
0.0327645582968
0.434406116644
-0.971472669288
-0.0393833091778
0.527269454082
0.54623935505
0.126532698689
0.583322010876
-0.606604142742
0.882664159672
-0.471229895717
0.392870229767
0.0262311495762
-0.823490231551
0.00381750905474
-0.636767736991
0.8594321774
-0.932305565382
-0.913424962761
-0.163296594114
0.767105085054
0.300452531535
0.44826816962
0.158105172662
-0.188666969156
0.435261675541
-0.995494348792
-0.119119948111
-0.623191224386
-0.397403087922
-0.654764523141
0.85443642243
-0.903325822206
-0.27252665709
0.125851667441
0.486566867718
0.109195840477
0.855077358984
-0.177028641391
0.274532952846
-0.57303126185
-0.303027725547
0.0854100709588
0.158926756286
0.70924767577
0.768286179699
0.617259034576
-0.931700202913
0.538320643888
0.485239479851
0.197625300036
-0.625352778679
-0.235164908222
-0.259365061098
-0.342585127683
-0.458278902193
-0.246889256809
0.885587796962
0.592621493782
0.566759108029
0.0102179817105
0.155929898178
0.96954945759
0.180011021687
-0.386703692686
-0.0986257261645
0.34690772654
-0.877285585222
0.962427250282
0.607221551777
0.822368611768
0.618300619592
-0.797717756821
0.333171879526
-0.0785042545085
0.633951368434
-0.243873016345
-0.802603166119
0.259389972373
-0.616066292518
0.50474767897
0.469064299546
0.597141224148
-0.814062635829
0.663695948601
-0.390728984132
0.969160577852
0.749502730642
-0.558554299924
-0.0942399105659
0.430679100524
0.920439136345
0.251286598125
0.531432301664
0.341860082827
-0.576918079127
-0.129185064818
-0.58203998185
0.24941563631
-0.458532325353
0.197648839559
-0.30645901142
-0.815734340065
0.458676697735
-0.904056538356
0.633160570988
0.320603826712
-0.772451489627
0.717449268641
0.995349849484
-0.864297542093
0.134611261377
-0.698723248442
-0.0565855610584
-0.0708442776928
0.942368301225
-0.787617874563
0.863516549111
0.939970179822
-0.870739774846
0.325975731284
-0.653998933478
-0.771808520652
-0.119808752212
-0.401265298652
0.340961029004
-0.632257222716
-0.204464083475
-0.818620766297
0.0467917820877
-0.425742148173
-0.334490294511
-0.936671163738
0.114294053289
0.486931176138
0.762988558401
0.560175272472
-0.533958939568
-0.812759311137
-0.558030081515
-0.82461756302
-0.904735784809
-0.496386563514
0.870669811017
-0.441165640552
0.591210014777
-0.0199486028199
-0.949602883056
0.195568097912
-0.805499799311
-0.728201630121
-0.451434464806
-0.672968823253
0.587111840179
0.255679949262
0.273269149621
-0.349564353244
0.132187452185
0.635588514573
0.755049099543
-0.509190770764
-0.305026966968
-0.599106096208
-0.483249857608
-0.850475152365
-0.170642885336
0.828174908779
0.427153372318
0.550807991521
0.0466971644288
0.792129209923
-0.5469269451
-0.173037170032
0.167613818108
0.432687554008
-0.911287287852
-0.230328614433
0.0178901435623
-0.150427795371
-0.573404285858
-0.41745076968
-0.994479917203
-0.131002830205
0.555360954932
-0.174900728409
0.690871224017
-0.772851116331
-0.8526693721
-0.378211230699
-0.337257390832
-0.413752998887
0.701027420323
0.728791004943
-0.4938837481
-0.183749833619
-0.970917417727
-0.46965611224
-0.642137178564
-0.790290425986
0.735252828533
0.941943638326
-0.510467964434
0.415114841609
0.944319004635
0.645019827496
-0.26929321353
-0.620232654489
0.891557389708
0.708161220687
-0.891884891543
-0.656775468686
0.816739613591
0.259871304047
-0.49932812255
0.11541445125
-0.83499469177
-0.726495179913
-0.893692007389
0.836176797242
-0.612317469491
0.721570936651
0.526447104336
-0.398982690997
-0.966862258586
0.293930781805
0.658789914283
-0.461311255427
0.898024477602
0.703122435147
0.653121766914
-0.909441489456
-0.499199997174
-0.36768965644
-0.93585766689
0.312609917373
-0.549410146271
-0.741722164197
0.0654364235404
0.707896183915
-0.0532943951106
-0.642451845985
0.74983761896
0.151165376339
0.456296817477
-0.927477600353
-0.491387630178
0.729156161742
-0.892301642854
0.78594197167
0.453020023647
-0.632811534618
-0.269161286904
-0.287986222181
-0.190978776718
0.500929222721
0.427140389091
-0.795112049379
0.151561449979
-0.911559811576
-0.260747506699
0.224445275972
0.0879370575605
0.163723125526
0.393983683374
0.383652298138
0.446658094539
-0.278779722484
0.033238206035
0.831158665499
-0.261572806753
0.619649284426
0.216575887482
0.146564612624
0.392702343147
-0.548922592225
0.749406816803
-0.158687800719
-0.883667880307
-0.534158353885
-0.506120165504
0.921950034978
0.354721375739
-0.401979336569
-0.372014026302
-0.245637708648
-0.884865890613
-0.0167724421623
-0.0355583051214
-0.948900491659
-0.522856110139
0.206965528701
-0.741015511201
-0.513195057849
0.175665559445
-0.535519626421
0.631337427766
0.771004014389
-0.545512392972
-0.768743071539
0.0584586745306
0.120023906407
0.047150799837
0.792998579984
0.784711376262
0.466528705262
-0.246253984735
0.0620928939085
-0.850238252098
0.764281674626
0.00334255246434
-0.937740319083
0.000261429277187
-0.282998828817
0.986288497356
0.56789942905
0.887044984795
-0.372675560408
-0.937016785164
-0.680797668495
-0.209687846715
0.945203938295
-0.609264625629
-0.229801660582
0.898373017499
-0.213078227242
0.489485936084
0.588945262946
-0.133956044567
-0.920585794841
0.832804369308
-0.420732075001
-0.534276275094
-0.644509305839
0.472307887181
0.929844355013
0.717659964745
-0.0465687708798
0.944037164779
0.621331888888
-0.762488710422
-0.834481747043
-0.0312440841658
0.353556526604
0.083985191387
0.47762653529
0.434416591913
0.314611953602
-0.95109316788
-0.475287459932
0.427313420606
-0.166357123183
0.947337866984
0.889284707095
0.428019997574
-0.992840503684
-0.885294974246
0.700316487979
0.705815498594
0.339846222417
0.0376439906322
0.810659228183
-0.738050764833
-0.959366068826
0.722458162874
-0.747886964558
0.764782874071
-0.586323354355
-0.712939327399
0.431598784311
-0.501028539614
0.532381126754
0.864092841602
0.626229396414
0.594655605443
0.339522286468
0.397969296761
-0.0451942227335
0.86073745151
0.343666071844
0.458406399201
-0.720702952115
0.575286999552
-0.643587454541
0.110482783985
0.50832905251
0.121232798908
-0.218420609799
0.349968840495
-0.226279979013
0.0772278442585
-0.853153594885
0.224297406938
-0.403774575642
0.983601258692
-0.0360891959873
0.725408917829
-0.0754804938475
-0.70015499769
0.810505957173
0.251217700888
0.249533286853
0.555881172103
-0.104615295146
0.58459211659
0.783306264878
0.505039647725
-0.484760415767
-0.24076462039
-0.379122671452
0.657692578825
0.548307538821
0.201619535652
-0.915505336338
0.0664752779412
-0.516628969295
-0.798921163146
0.77890143618
-0.360013289769
0.902599622794
-0.926219978404
-0.450604361132
-0.567423048816
-0.924638099978
-0.254678115496
-0.821333804772
-0.0347992220692
0.576849288903
-0.103735001598
0.572479111319
0.872755230546
-0.22121584394
0.304198920048
-0.933311193282
-0.483103402969
0.663828314431
-0.0763904704816
0.80408623029
0.869869468966
0.273126089732
0.789213940163
-0.240648444389
-0.0554563641872
-0.527938925418
0.488179614633
-0.366388705047
0.530546666373
-0.170700138606
-0.933895581633
0.0856417013229
-0.488353718559
0.139435976929
0.557659778538
0.545093665444
0.427060407266
0.444993118305
-0.347979816535
-0.385143305095
-0.758925015627
0.121053052092
0.915885383935
-0.0921034102091
0.786415338876
-0.0504408032798
0.997922620997
-0.541732973022
-0.0197193752399
-0.234523639753
-0.00455676546218
-0.567568263248
-0.844482144286
0.226027517757
-0.738897698045
0.746012443247
0.703231622988
0.886545963702
-0.0052329977361
-0.940821262391
-0.598533509482
-0.360582256716
-0.32982775201
-0.869923912369
0.366763333943
-0.760913099805
0.480822330608
-0.435758035882
0.136975015318
-0.680192879098
-0.624561142944
0.620683038588
-0.32719196495
0.262811201282
-0.484372965591
0.39796394821
-0.572397223513
-0.816531451186
-0.166939250856
0.533977947389
0.535723134069
0.593557057554
0.652664394443
-0.896084522623
-0.476238030447
0.24567867214
0.0556452303124
0.681418293753
0.702063442239
0.393653608643
0.726723692265
-0.673352272251
-0.815332239731
-0.994742143497
-0.228637218346
0.475826835407
0.559914828499
-0.0660972718931
-0.954106937659
-0.745258687875
-0.300913685755
-0.858070226644
-0.536505938322
0.678599514792
-0.616254615168
0.729856129249
0.957079754861
0.408130496736
-0.997968712964
0.401820404023
-0.758393706921
0.954406804015
0.249859533108
-0.819702764337
-0.55274113398
-0.125958246647
0.340608429921
0.835245241088
0.0824141338721
-0.359324555532
-0.786552564254
0.737489866131
0.1630073378
0.186389803546
-0.060674142611
0.0155330422815
0.272920913343
0.321180412121
-0.252672279508
0.424599355358
-0.940602703171
-0.669694242688
0.812276727854
0.480314906923
0.460883888758
0.137041687322
-0.131463006229
-0.972155096188
-0.939458340464
0.572027236063
-0.525118238704
0.168303462453
-0.12020145017
0.770948705202
-0.122113519702
-0.00675375624156
0.525947954418
0.211715942051
-0.907387775783
-0.573506918525
-0.292361429505
-0.274110292744
-0.50372509714
0.0924181934762
-0.749212921442
-0.635555628569
0.864051711122
0.764659947859
0.831140290826
0.674393178775
0.707786593119
0.161973782603
-0.94222568029
0.0279210148083
0.993431031304
0.372718670856
0.21930125063
0.367135480261
0.677178030813
0.751566433888
-0.877082632028
-0.189713543426
0.610592887401
-0.140575110217
-0.999540954512
-0.526339281289
0.858725427418
-0.796659198091
-0.716047142169
0.259674609576
-0.829332239006
0.166469957424
-0.0159231404958
0.242500136595
0.694983823032
0.120514696862
-0.686482009533
0.162203390674
-0.899324278344
0.0820275291187
0.294610658082
0.192233394809
0.732303342395
0.707291663208
-0.231396784919
0.460130841497
-0.970884207362
0.654209593028
-0.572120995684
-0.830144440984
-0.699791940911
0.294052563729
0.0151669775683
0.950166808452
0.934258047351
-0.014650270044
-0.265375813769
-0.919113933737
-0.923949372344
-0.726235538754
-0.0264889215192
0.574364004336
-0.531460555005
0.305081444599
0.444392452368
0.675567262623
0.774007821243
0.718880721073
0.0393823133747
-0.739021276598
-0.463199731797
0.398602822911
0.101566159514
-0.739178467729
0.233081862924
0.0297433423184
-0.785935825883
0.278922433902
0.834462112259
0.593593545449
0.415827723089
-0.690468129012
-0.559635168492
0.224908927272
-0.174794998234
-0.403664571625
-0.64858143576
0.496447705434
-0.0447313729974
-0.526179937695
-0.0683242929327
0.128418280185
0.497699115728
-0.308354906342
0.077385310404
0.239900412555
-0.527215711897
-0.517249347243
-0.565776761071
-0.0346605291402
-0.716252310944
0.33178048537
-0.840964055654
-0.675562197852
0.262218625944
0.36735958391
-0.0246925749272
-0.34077767005
0.750525689199
0.970044119316
-0.0487279886539
-0.0514156465136
0.393320832289
-0.1227153311
-0.103589163135
0.261000868181
0.149499751436
-0.777581514724
-0.399301592051
-0.186490930457
0.638403594173
-0.0788351659632
0.875293008692
0.49694602419
0.677840386501
0.720302667674
0.138315429312
0.736267269639
0.836715115398
-0.776561001838
0.516665579112
0.5449309906
-0.054442136617
0.0452684557845
0.77241295802
-0.781301741965
-0.751729555134
-0.792862332268
-0.00931482470555
-0.811106303322
-0.743868077968
0.920719377072
0.704500753435
0.686094100288
0.279052745187
-0.0558640812688
-0.49235856606
0.045980356177
-0.810057755614
0.95969296583
0.550870176808
-0.363087025679
-0.659300413856
-0.605238957817
-0.835124161236
0.585894023359
0.142134341422
0.129954055193
-0.648344739662
-0.457459666161
-0.682837843139
-0.113952114436
0.487387207849
0.585234352924
-0.688782217416
0.466183580279
-0.86014102611
-0.148455106968
-0.363426369092
-0.983780766307
-0.321381562565
-0.148011208859
-0.316398094007
-0.676441074574
0.297259218897
-0.896145887492
0.968277670581
-0.278844991745
-0.728956728665
0.398694406352
-0.0636489210031
-0.062339646663
-0.322638214921
0.519017151146
0.484508976335
0.153823030059
-0.109811421677
0.751999546249
-0.773580521953
0.58027858496
0.365188140567
-0.639361747477
-0.199469765789
-0.814685623119
-0.764648923917
0.19931855188
-0.740807185829
0.516383590083
-0.699666618429
-0.861593972706
-0.652272093778
-0.211643215571
-0.30891178396
-0.433199439642
0.261739415036
-0.561573502927
-0.81473548304
0.769537132723
-0.853215629368
-0.221917700114
0.301599168018
-0.192362673321
-0.567390227727
0.587160621095
0.592320497228
0.760385050722
-0.829244336529
-0.115286587442
0.00453078787857
-0.229018981321
-0.507065573494
0.047959631512
0.507926491992
-0.960998586857
0.244204048999
-0.865635621824
-0.274826750168
-0.0846272327635
0.0402438116599
-0.999037848151
-0.944900719063
-0.894732590855
-0.025694482966
-0.163046295358
0.715409060717
-0.952435977198
-0.867182911142
-0.247111304125
-0.0639641834489
-0.211757510385
-0.508004455164
0.875106452308
0.938899217403
0.596361153536
-0.918109529212
-0.273814417723
0.282040677864
-0.996870144423
0.750110094827
-0.236729711977
-0.906385686655
-0.735214120994
-0.128219257963
-0.203089882858
0.172704364151
-0.39712798531
-0.1148299922
0.430624649741
-0.0100062687416
-0.82188460405
-0.523897636229
-0.965784578671
0.411044342125
0.217677616665
0.703757384496
0.210368256625
-0.540323049034
-0.223182873971
0.507800873977
-0.968529541425
-0.877749171424
0.505766536013
-0.49477264976
-0.803455928348
-0.23356539018
0.952957490322
-0.709470103442
0.849607718676
0.00222143434584
0.243593979718
-0.804708737482
-0.231932804834
-0.774710264637
0.816890021254
-0.558772802678
0.551268390872
-0.715750172081
0.451795308103
0.189816547224
-0.116729453966
-0.979185556918
0.85187399338
-0.541759806751
-0.178026045801
-0.322189866148
-0.95831767554
-0.713772509696
0.753734656802
-0.762324678951
0.0688699176038
0.868006230053
-0.444874833945
0.776037833707
0.559791672505
0.467707742381
-0.891780676537
-0.390241496915
0.0352518326934
0.832610277826
-0.150298717763
-0.493161348189
-0.721673706589
0.0226915948122
-0.889362416644
0.849744620995
0.493267607156
-0.192127276208
-0.244016996074
-0.720448372418
-0.192874537725
-0.0370199957811
0.207754149118
-0.141940098609
-0.372919714763
0.292755574164
0.350955154248
0.967636286084
0.666872231668
-0.271631160731
-0.229364958423
-0.482186335181
0.215368610249
0.426253705016
0.848138964928
-0.494844039044
0.936767167733
-0.918134067035
0.126241126888
-0.121399511447
0.35303635625
-0.500261882564
0.65119364473
0.857644569469
-0.44412086849
0.510387921204
-0.378109076822
-0.140128879856
0.1941950915
0.14676552917
0.222242058188
-0.506227732963
0.0842183660394
0.874777044091
0.456194034977
-0.184972438552
0.0560307365997
-0.319549295805
0.570169960192
0.466002320349
0.364729823549
0.512975805896
0.0705992514595
-0.216817163343
0.229717348336
0.117440360172
-0.494416531818
-0.816627085065
0.412490596488
0.286634310244
-0.664755705593
0.62610321561
-0.568182346973
-0.175208410925
0.63962316777
-0.64722867739
0.444670589361
0.844708412373
0.562178304119
-0.131640629106
-0.747957634538
0.899481564693
0.790686560722
0.507354633234
-0.0376957725857
-0.71302464807
-0.764110385369
-0.0692781363962
0.0993504466799
-0.946059598627
-0.218240510624
0.976577074588
-0.251061686857
0.728256854825
-0.220191936991
0.186766271885
-0.276836878755
0.478992850393
0.39069373524
0.702943555282
0.238012181647
-0.325024357056
0.274212847378
-0.675527590586
0.897099553896
-0.130525543432
-0.992587720575
-0.258214582766
-0.569550606014
0.733230926636
0.323315452358
0.237950147154
0.754304326782
-0.784731794269
-0.91703308795
-0.988119342516
0.0306939639125
0.200260288012
0.344237801029
-0.143648993613
0.803928819293
-0.990086370897
-0.598078674344
0.836892469001
0.126978470981
-0.71657363087
0.889934796759
0.329244083904
-0.710066261135
-0.294845586114
0.772285455349
0.454610598232
-0.5574849236
-0.833856549028
0.0577288917997
-0.67496203851
0.389368512785
0.551894101681
0.663713240944
0.679708147455
-0.0270540351633
-0.729389603772
0.344422411175
-0.162373381715
-0.489092773301
0.829196288217
0.0787574264013
0.169938142267
-0.0555180585487
0.461964350741
-0.590761267605
-0.504041775732
-0.253830456005
-0.0241506572956
-0.331330268989
0.543027399157
-0.345035765251
0.627279658172
0.673921018177
-0.0380915879197
-0.683299745221
-0.859156800897
0.454732175841
-0.987772713167
0.365029766123
-0.0888676337492
0.0026446077551
0.95300587679
0.150270844922
-0.681343874797
0.573116733649
0.43877564995
-0.692083364357
0.756522348608
0.361391522442
-0.189736340425
0.309676621389
0.928309413907
-0.908252661242
-0.601240398333
-0.726357011152
0.201059740668
0.51258497659
0.997961723147
0.810918286465
0.745445120811
0.273363873804
-0.356948654316
0.983182557161
0.420745139039
-0.726271567325
-0.345641172581
-0.984284695706
-0.127809862661
-0.402878296559
-0.984061753304
-0.784393689469
-0.707702046556
0.19891152901
-0.312135213841
-0.895807192158
-0.729344020739
0.991978565513
0.651869139597
-0.127590712133
-0.363098934223
0.0183991535165
-0.958726414463
-0.335279190586
-0.495354094153
-0.962049256843
-0.662289964537
0.444966242694
-0.553682346117
-0.725163839173
-0.389535558531
0.174719806776
-0.44824220022
-0.851150758753
0.973231415232
-0.896484972887
-0.613827199798
-0.600747345984
0.892358167656
-0.588113617083
-0.355199330183
0.548825964497
0.222566710121
-0.307593993578
-0.0891619689797
0.336071389398
0.430185688566
0.122987837432
-0.384082894215
-0.412634889204
-0.587885930477
0.0695033601088
0.984479029258
-0.100646638546
-0.411802231969
0.92373247034
0.746258307025
-0.740365657775
-0.917100725949
0.0672130371717
-0.6430723931
-0.318392445613
-0.345306032226
-0.489710436218
-0.276083012141
-0.997430149592
0.454924647726
0.97194038867
-0.966308423163
0.902426518936
0.411791724174
-0.333139278298
-0.16379340979
0.690478033778
0.596824538449
-0.952366020502
-0.163890380525
0.608228924897
-0.069388317746
0.746741369511
-0.116684967596
-0.0806993920968
0.975804914609
0.553300606732
-0.362504513768
0.70995809233
-0.897793379799
-0.394901380745
0.77178527016
-0.558376857369
-0.119052064936
0.212704002578
0.66470838939
-0.959434946282
-0.98151656247
-0.273781878675
0.0216567202972
-0.277715833951
0.465268818006
-0.481722046029
0.630840906316
0.301151589984
0.599488085749
0.182352283912
-0.564083972589
0.532718908207
-0.0692126351771
0.890047530511
0.220344829196
-0.508073771298
-0.223833054193
0.513623284023
-0.839815965136
-0.567288090989
0.679359888764
-0.267117590694
0.810513353943
-0.273581144627
-0.4515224094
-0.232630364255
-0.341305277288
0.838465791086
-0.514395762353
0.856755763509
0.163711385204
0.424605178698
0.444236375956
0.704615538833
-0.318812449747
0.720753284998
-0.72575289185
0.659608678105
-0.923494199928
-0.954694298957
-0.0249487161681
-0.762950323483
0.0541751663353
-0.0270627991633
0.676596391927
-0.455834714209
0.373415298517
0.55203729925
-0.730790211681
-0.417808049411
-0.841425669998
-0.76873112425
0.957098970532
0.57073820758
0.266640236164
0.614580203268
-0.853022192577
0.146272836613
-0.5993428627
0.41788859924
-0.748010910121
0.483747074214
-0.836578214328
-0.485101283709
-0.0111928935225
-0.776952168163
-0.813486176183
-0.192995531226
-0.817116187097
0.304197560149
-0.056000117757
0.0794153649879
-0.619042411022
0.721874177229
0.681148909431
0.256627868383
0.958868106861
0.851746237525
0.511803821302
-0.225735635273
0.18764860075
0.0217205871242
0.00119532021146
0.0111250780668
0.495054601173
-0.73917760067
-0.659009389675
-0.463273010045
-0.908137897168
0.682718153646
0.023081036843
-0.954806209359
-0.574243523976
-0.446572071821
0.796336944782
-0.519713952549
-0.786840556036
0.523559538288
0.681628952088
-0.468345301511
-0.866190766588
0.254719500562
0.84380518374
0.0872248741615
-0.349451526757
0.804873373038
0.367281540945
0.123223936527
-0.886745975753
0.729745398608
-0.361516124338
-0.33761030964
-0.425217087603
0.239738399397
-0.732236622996
0.936767951914
-0.112441248601
0.534928563069
0.922142877734
0.388485148991
0.255924535689
0.653275873211
-0.308900116727
-0.320147428527
-0.870266319273
0.911692231092
-0.894107497264
-0.768932079266
0.222460114223
0.157655193196
-0.145330582526
0.000946846958635
-0.34270002359
-0.567545446051
0.426928244871
0.719335529975
-0.211652449751
-0.454461363382
0.168233108249
-0.319850519209
0.597761796595
0.480712169226
0.43587848279
-0.197774469605
0.955204763098
0.271484386428
0.0148333070108
-0.927530741963
-0.958888386272
0.454799157137
-0.710400506513
-0.136746930279
0.228462268054
0.630210218116
0.499920172766
-0.791809523081
0.10909218865
0.47850353764
0.577956729988
-0.27602587002
0.9543608651
0.92935832862
0.575007008353
-0.342225938176
-0.686954300337
0.229780676923
0.700186522254
-0.815849888865
-0.961221232976
0.872941536141
0.312617109447
-0.241673217952
-0.552827850743
0.474358022552
-0.133950711768
-0.833651903615
0.770713155285
0.942374291058
-0.735099473939
-0.260633671514
0.842396308736
0.850563383942
-0.538953612158
0.838243454891
0.424749902526
0.89751121895
-0.21061600249
0.318267200176
0.338802705504
-0.234718431085
-0.414412457644
0.933432846416
-0.311417902144
-0.26916285506
0.225247403169
0.552433911505
-0.667114979111
0.328130507252
0.94703562713
-0.0492361033774
0.379161875585
0.0335428428829
-0.217563138009
0.650271038397
0.296915326654
0.252017854271
0.133248700293
-0.234272560266
-0.395573842504
-0.755879713171
-0.439393278849
0.0929249139324
0.231611021691
-0.482644846103
0.489794901157
-0.613935177716
0.185148876267
0.937295365149
-0.52096518824
-0.785200587804
-0.28829202062
-0.661912814792
-0.897735925056
-0.841493490781
0.942575662379
-0.308766155428
-0.755513720206
0.11139811242
-0.0966392383308
0.163955072805
0.500385847217
-0.146306712617
0.279205758696
-0.83191547345
0.178500863705
0.7514529033
0.658091578939
0.263572047493
-0.868368168974
0.917492606836
-0.173464039421
0.469370507784
-0.751574806908
0.0607822235812
-0.388404519702
-0.0690983392441
0.118356709148
0.247553954842
0.137760304538
-0.985898880122
-0.849490217887
0.881238722172
-0.493137829559
-0.544412434832
-0.101223205062
0.108778362386
0.317378843766
-0.904849064952
-0.886799760102
-0.81049574345
0.950121300429
-0.0739117405953
-0.391661837893
0.139692451687
0.521651086091
-0.134850940901
-0.681528327767
-0.731178952629
-0.968837856449
-0.427652879283
-0.122721109875
0.238867508746
0.012628478187
-0.4094876706
-0.0472077300775
0.0422758678053
-0.529920611889
0.241302207164
-0.302613451503
-0.0530196389831
-0.608420585066
-0.510583182697
-0.599348845967
-0.859405826307
0.796349872721
-0.812438807232
-0.388835945775
-0.863285171209
0.170733048582
-0.612743780178
-0.990001402811
0.370809649111
0.623097920953
0.99647093617
0.0274095239036
0.297573081361
-0.691899488181
-0.947729716988
-0.354309984277
0.536419307456
-0.362162578322
-0.669674492158
-0.247641412868
0.0148815661432
0.851952586229
0.521264980098
0.492027491537
-0.462842110514
-0.210951602182
-0.194586949462
0.236554366271
0.999903804054
-0.825047505918
0.636644304584
0.413293430648
-0.65784110426
0.574755527575
-0.791082443198
0.30337636548
0.345840850182
0.5217618969
0.0196958192447
-0.152193705056
-0.107246428713
0.686732134893
-0.673510505446
0.545978399768
0.802621227564
-0.743460010993
-0.371436265736
0.0136918300058
-0.30141087152
-0.739045677082
-0.804146863048
-0.647179974746
0.475921209585
0.022321543545
0.0856990044268
-0.44902570163
0.379717803028
0.812076066498
0.592782920129
0.234269857712
0.150279147153
0.485816353603
-0.735216757111
-0.565634505848
0.501668826565
-0.722948019631
0.21714193754
-0.299279307516
0.693528368651
0.511665328481
-0.509976557634
0.889746761959
-0.789292548634
0.919553462628
-0.11123791603
-0.947836949333
0.402531054487
-0.413326529987
-0.790220428999
0.287376808482
-0.205100949856
-0.453577043773
-0.697335922398
0.198926538141
0.0284750503459
0.662609167401
-0.0129111190298
0.722199774381
-0.28423493463
0.685964498665
0.97003959741
-0.122129313062
-0.788194086464
0.199873332515
-0.441671706915
-0.951107002915
0.536871217215
0.545294723041
0.813044833385
-0.793897636855
-0.382600380299
-0.725670120147
0.584251045368
0.285966953099
-0.994877383413
-0.423347332103
-0.657381871603
-0.151873277756
0.419601902938
-0.992091348153
0.59017617687
-0.286597779335
-0.747257279713
-0.110042215099
0.201297305697
0.479694762125
-0.192196247383
-0.885671812604
-0.864839632304
-0.608060317613
-0.854500001873
-0.25129314552
-0.534978087443
-0.300021134977
0.079639826913
0.084635619128
-0.0329414236956
-0.00247195591237
0.29774641359
-0.751332931281
-0.108125843885
-0.306657637807
-0.192599956114
0.829214383233
0.659904202827
0.0576927295836
0.110300401852
0.846046498802
0.60969646456
0.302228331055
-0.953829397046
-0.233679266319
0.807143348184
0.484466972287
-0.935944341482
0.370862200735
0.923170723057
0.500688510024
0.419665379164
0.284621552695
-0.48471512571
-0.481484075974
-0.0851556523539
-0.166380579827
0.0248549968055
-0.533128770076
-0.892793514127
0.0920167738022
-0.027449267324
0.412040733804
0.996847395122
0.746558158999
-0.796072262461
-0.419878228253
0.216973589264
0.433788196223
0.93276823743
0.561327331315
0.29138496933
-0.0917197723951
0.655151587306
-0.0155162501388
-0.317465210547
-0.506437979198
-0.161424880886
0.238552299061
0.621022933517
-0.239138586021
-0.966070490799
-0.778052915257
-0.152827553008
-0.975967991716
0.365893542561
-0.443223126723
-0.721597652802
0.668554820866
0.300491403825
0.511102727923
-0.14201257094
0.543947800063
-0.0855445350932
-0.805265359168
0.185214104612
-0.691576207277
-0.869697511863
0.528138879727
-0.491463057488
0.467435430683
-0.259634662838
0.315961697275
-0.13364347463
-0.223032650478
0.687052823072
0.0339283451545
0.155364020396
0.418651132481
-0.0318240058358
0.102888594251
0.483353716628
-0.061606428244
0.944755793774
-0.369018750841
-0.690394179
0.910403731095
0.682890504359
-0.456980593504
0.172911333346
-0.929349463235
0.100506482065
-0.228242278772
0.398102966779
0.536261690086
0.920667272297
-0.721601210022
0.685667450994
0.741785819117
0.775673150472
-0.902418275002
0.0929137755564
-0.752232005969
-0.0478205790327
-0.472929990167
-0.289511970661
0.0220193170377
0.177233068943
-0.85550037607
0.857469659791
-0.241613765148
0.518355177777
-0.903637537362
-0.00499363631613
-0.0420478936174
0.962675518545
-0.0836832773238
0.16933459328
0.502481488609
-0.934100999275
-0.426320009289
-0.58356653326
-0.355366537202
-0.556039295149
-0.996286233424
-0.199955471148
0.259706460926
0.611758115177
0.451181214297
-0.0282576638284
-0.280270132366
0.18293094172
0.012368225796
-0.103626548801
-0.381966404607
0.940274825553
-0.0283235517405
-0.0036581314541
0.920332838898
-0.317617845358
-0.870395253663
0.886438385468
0.282120598318
-0.868241726929
0.0262728083429
-0.764907671156
-0.588323030676
0.887217855903
-0.69564632629
-0.0578435718052
0.877886217772
0.742374682722
-0.882147034756
-0.427569274525
-0.765763615034
-0.665885130218
0.288861044103
-0.577485200357
-0.845442871207
0.0346771941759
0.342751073361
0.33353842488
0.828391894814
0.170002034449
-0.121438793056
-0.833874462721
-0.627853371199
0.571566711042
0.450789304847
-0.0639589834938
-0.704044648462
-0.971013750535
-0.27891621238
0.811713658262
-0.579130725045
0.539404774819
0.270037554573
-0.291945077679
-0.936563417104
-0.0334572551922
0.677186699392
0.163270051432
-0.556135169035
-0.518789092485
-0.857876379147
0.500748961037
-0.750795750776
-0.733068947826
-0.0940049128051
-0.0109754282059
-0.106933587497
-0.749573555559
-0.211636856057
-0.629885928687
0.941907683896
-0.403370598012
-0.589541334581
0.0306656953793
0.835045794839
0.0402255146251
-0.883984655554
-0.371428682283
-0.568938325271
0.789139951532
-0.850188032032
0.149664118937
-0.75507095996
0.974203228641
0.793144184251
-0.119707051362
0.00775383920268
-0.366033542654
0.0982728173061
-0.394831418237
-0.705248672272
-0.967341648994
-0.160909900287
0.353308566357
0.257590774027
-0.340558377942
-0.819000360375
-0.190882737613
-0.451945799773
0.667527612431
0.583999346264
0.750583866912
-0.90537695619
0.0806080168868
-0.972495185601
-0.231694530678
-0.514657751005