# vtk DataFile Version 3.0
Step 1 Random Fields
ASCII
DATASET STRUCTURED_POINTS
DIMENSIONS 16 16 16
ORIGIN 0 0 0
SPACING 1 1 1
POINT_DATA 4096
SCALARS pressure double 1
LOOKUP_TABLE default
0.280000623417
0.644865122848
-0.0308862370186
-0.137633749217
0.321463669356
-0.862652027563
-0.263774030095
-0.883924520829
-0.800179271831
0.70931678907
0.400008556254
0.948429366299
-0.456886319316
0.0558288236853
-0.10097993256
0.167659464971
0.260853182991
-0.398306306352
0.985660147956
0.0412144164507
0.305213257529
0.00529460911938
-0.94704293437
-0.0302172068932
-0.146747446022
0.913300708838
0.287167030933
-0.183685205059
0.759400233275
0.897495787569
0.653049185873
0.692678916368
-0.214145432735
0.749970488971
0.389399127929
-0.287904777695
0.281599418233
0.983558279374
-0.684870059754
0.0438404758325
-0.0528598271905
-0.791011791144
-0.869796682924
0.830271827697
-0.0914021144782
-0.343977882565
-0.809251047438
-0.837722841688
-0.715234849318
-0.26763397631
-0.327755125799
-0.25045818023
0.513356040325
-0.887087578514
0.568510024274
-0.910401785539
0.224278229844
-0.951349175128
0.437233467814
0.997899750189
-0.508040684007
0.991222820695
-0.484291275219
0.216990980797
0.473031452232
-0.914104371994
0.789627080124
0.993930325301
-0.579895464788
-0.997451169849
-0.366640482229
-0.531004364212
-0.366809107046
-0.0209865761002
0.616141475231
0.0411194175455
-0.498663479787
0.0741164439852
-0.817404650527
-0.972762942193
-0.660065550871
0.998480092438
0.432971945582
0.664426326416
0.25397061413
-0.689663480465
0.763627275409
-0.38729315393
-0.981670913612
0.825918481606
-0.019327745952
0.880856633028
0.393729570627
0.643125646078
0.924451262153
-0.912359888587
0.425046794826
-0.793401896637
0.567304146575
-0.110121809682
-0.433749819193
0.0702172549337
-0.677752780691
-0.631946487663
-0.499966693847
-0.229918361585
-0.921924880974
0.975730807514
0.643766491061
-0.75513448177
0.290044162518
0.858075602761
0.51619524938
0.571982455254
0.937748608503
0.0399234536849
-0.840183501078
0.164319211182
-0.0999430332398
0.776921918582
-0.321387353903
-0.271362414011
0.477995828447
0.46692476316
0.682369447326
0.920228445266
0.247224035203
-0.169822400967
-0.398749853686
0.390808337266
-0.184054754369
0.712580488422
-0.122252478133
0.0535518166497
-0.439612341105
-0.158144038633
-0.354386745711
0.935810067165
0.973498319457
0.72927749304
-0.754785855457
-0.402918981916
0.404297649322
0.994982096493
-0.127596299105
0.027995436692
0.243364423854
0.986821986786
0.0269595896442
-0.355937660536
0.380654685523
0.964511589663
0.166076305175
0.842364000844
-0.407455402725
0.258979652115
0.281258119674
0.0418270260444
0.859450238216
-0.413613348471
0.269224840425
0.38344359639
0.839822106424
-0.017116087371
-0.335214785416
-0.746974042301
-0.661060891046
0.95390999998
0.197180902276
-0.819812784561
-0.160557555415
-0.814162522927
0.24000301234
-0.0405275473099
0.563913334786
0.830688508091
0.31170452381
0.97610542396
0.447112837668
-0.762320061569
0.158282887837
-0.281886898486
0.731596075663
-0.150991937871
-0.186034243904
-0.323545450935
-0.882832516005
0.0453339255583
0.115662188408
-0.845235047721
0.863444270869
0.788102149599
0.151922339484
0.0316125881982
-0.396313671176
0.139814040865
-0.295031397574
0.938522850079
-0.670053302521
0.44832682537
0.813055838549
0.281351044557
-0.527931229882
0.165011230274
-0.377829478704
-0.697677104343
0.776372374484
0.00433007600638
-0.0475657774103
-0.589554104631
0.301861316044
0.582968024286
0.588766707254
0.896444193842
0.979584233163
-0.741920188858
-0.709923852636
0.983436255253
-0.620521943637
-0.868376097594
-0.717454046317
0.871326116049
-0.140348891948
-0.882767512869
0.272093292909
-0.346531871253
0.858617808957
0.354531776105
0.277873083904
0.167133296873
-0.549118603995
-0.678640034033
0.0509195761588
0.814136376297
-0.970837936062
-0.586929521963
-0.517428913601
-0.151074038406
0.339760415984
0.704876825749
0.144068905859
-0.296423482345
-0.517190960056
-0.171396582452
0.717497503377
-0.704733540296
0.44308638818
0.226770374512
-0.939918264887
0.628840675667
0.508140864907
-0.161932027439
0.452700169544
0.075841106317
-0.884148453484
-0.53521761042
0.789759759867
-0.667562475934
0.290134647771
-0.869566573448
-0.319086480213
0.573179140837
0.0228268159614
-0.984038600966
0.196161816671
-0.630350927407
0.5010914084
0.52554890106
0.532485151147
0.474206883647
0.53767242797
0.811997049838
0.80482428811
-0.722311217254
-0.690478657615
0.757404902362
-0.134288615289
-0.217498911173
-0.334732606188
-0.0273695215284
0.660123056204
-0.404756517668
0.69740923938
0.0610095554952
0.593936935925
0.159293489895
0.592855867852
-0.174458729132
0.846533221398
-0.0724083502492
-0.107485159727
0.233204673965
-0.273757401182
0.0344519987097
0.529306245962
0.0212751456548
0.897525438899
0.104545404104
0.812775533368
0.426222179183
-0.625767964888
-0.585451493143
-0.0160056451968
0.537860191863
-0.46844223994
0.638352615621
-0.0764281064619
-0.633319295569
-0.939695698409
0.861697153045
0.92254127689
-0.752135176007
0.0795762345597
-0.11269789161
0.287593658739
-0.425917556245
-0.870269870465
-0.181176794799
-0.446056994454
0.494594809602
0.217211284584
0.255211454326
0.0484161226364
0.47117167143
0.971250166817
0.720963933838
0.821263288355
0.576585386875
0.933046927832
-0.825053977984
-0.0713245637528
-0.827429356957
-0.956811630449
0.728725169797
-0.141567745793
0.778465619129
-0.528514704867
0.117953549465
0.0821847153799
-0.0977582710498
0.126883839076
0.288711589773
0.0117229232689
0.365688777769
0.500916813941
0.887671641814
-0.0184832248794
0.676860299982
-0.190893255132
-0.960342967155
0.935787117431
0.22299169532
0.677778067034
-0.697040316524
0.311203376031
-0.310652761185
-0.429827207346
0.0525983223112
-0.288471542708
-0.651800102607
-0.326535895532
-0.0734557031825
0.231825271782
0.499988993689
0.110203785146
0.913434149125
-0.70053104696
-0.993211622661
-0.0525825821227
-0.625064532139
-0.336377434346
0.731756423071
0.0761149160194
0.00105596521756
-0.649366191387
0.665150880747
-0.852369943536
0.686749860229
0.912543118182
0.376019597297
-0.723679461176
0.349402861087
-0.610434405593
-0.468802775629
-0.299910551149
0.247830775699
-0.226805037193
0.125815213158
-0.69016881636
-0.47959030658
0.807956155107
-0.379723182735
-0.387540997548
0.399493764866
0.792710989156
0.283983695223
-0.674445521836
0.67140768846
0.0743686716722
0.774765536183
0.363690504697
0.482001517789
-0.65717557814
-0.806811870455
-0.178888258177
0.0740149405953
0.769284051886
0.705539295109
0.735658721378
0.867160624076
0.898412742136
0.243884070952
-0.805430010002
0.649418960559
0.193124536695
-0.729287089801
0.43193151056
-0.478060420937
-0.404611605673
-0.901534457739
0.136736305998
-0.302233329611
0.393578499413
-0.272973563412
-0.132145374285
-0.0346807088782
0.113966631945
0.240165168245
-0.0593970635333
0.740090556376
-0.603969993952
0.614652671583
0.438102627878
-0.563343106845
0.90128566546
0.0772468368146
0.231601303337
-0.736520881974
-0.276212459697
0.349142743574
0.0864763505042
0.594240637209
-0.176456438005
0.81964114488
0.693327862338
0.275962377563
0.455403792059
-0.23051585857
-0.331303679628
-0.659435715907
-0.885174806368
0.241599159998
0.385532438045
-0.0494348626396
0.793553673714
-0.17819825069
0.511194676151
0.92586427131
0.951099442534
0.484723848955
0.922509261814
0.31983372388
0.487123288062
0.631667793904
0.796702669256
-0.599164793801
0.389107466754
-0.809396844074
0.295739745069
-0.760159448005
0.640087160327
0.291038917457
0.550096933925
0.715822510388
0.61865613972
-0.587234568772
0.92639718399
0.201606916279
0.912100780721
0.752372251083
-0.204038133647
0.383095731197
0.448924920027
0.0801508503004
-0.377380176823
0.00849985604881
0.513295872218
-0.73261377434
-0.973023598472
0.704116356189
0.837577278356
0.592695168636
-0.229833313763
-0.117056723257
-0.882382832638
-0.157540692661
-0.590593993913
0.37819091921
0.758388597261
0.193677220506
-0.974608910798
-0.613642507954
-0.753285230387
-0.695588197271
-0.335647609572
-0.27980681952
-0.837415291109
-0.591856701259
-0.906413582057
-0.274309161582
-0.248629736569
-0.981751994675
0.645512752986
-0.0271498115589
0.590637426963
0.966808144061
-0.779171953469
-0.431542281078
0.138261971313
-0.415415010795
0.938828418062
-0.0210347593455
-0.0793785926851
0.508396320844
0.336079420102
0.984711039359
0.828493901706
-0.328019316955
0.991607233312
0.686114702272
0.445324586226
0.581554364436
0.739226228749
-0.200783858599
0.643102513025
-0.369624073454
-0.822767192291
-0.223456376544
-0.948066582326
-0.915378953998
-0.430285244244
-0.943326089451
-0.4698602905
0.398088029342
-0.210815554836
-0.435952538485
-0.863122612163
0.620405665222
0.670899498211
0.258386442128
-0.428576494301
-0.534333696914
-0.46496447538
0.497095677944
0.337755046298
0.112410473714
-0.752513835299
0.645384943578
0.807628351397
0.0181077603949
0.0897325515283
0.791142162973
-0.143557827316
0.174932510959
0.176726593422
0.75660093783
-0.0948986927053
0.239369068699
-0.32981388333
0.570938881028
-0.0154764143726
-0.556229428264
-0.567110772334
-0.71645215535
0.428179345592
-0.94491161113
-0.996787588727
0.501467351366
-0.327090030058
0.138204014139
0.321094451597
0.0368419590599
0.546708094687
-0.83324271603
0.0455435832791
0.795144756914
0.159384149385
0.664209515924
0.0963230557871
-0.482404713612
-0.597341582279
-0.249572584572
0.671443397596
0.812861395785
-0.893570323336
0.738075610949
-0.565991457316
0.788606446917
0.188347448378
0.658089321264
0.904810843561
0.860728862391
0.746042116672
-0.616707743576
0.0130675435989
-0.0492326622505
0.556388007818
-0.99828413193
0.47214204327
-0.195485164744
0.710410581822
-0.604806372773
-0.626027758588
-0.110518337295
0.0280951414055
-0.852186807015
-0.497235365926
-0.234272608301
0.90727335439
-0.266679323664
-0.183379604047
0.856579398356
0.855985255731
-0.875314675114
-0.97525290858
-0.0545084934075
-0.967372333764
0.52329634867
0.379579285908
-0.681445986233
-0.569692448583
0.0573739960661
0.0539262322535
0.599994333047
-0.366766215567
-0.71398709609
-0.255104368134
-0.338480813864
0.14768765669
-0.183625725402
0.960697924099
-0.614602947761
-0.747903859682
0.608641390881
0.781164603042
0.136074528976
-0.954586398742
0.341622453569
-0.17742428532
0.614691180354
-0.235177010116
0.762093722964
0.605213185391
-0.693805199908
-0.241263384731
-0.943970842436
0.935830957374
0.828759544609
-0.741605102194
0.268393295344
-0.466531054796
0.841044628106
-0.37821351305
-0.721370184522
-0.14053264272
0.874885231263
0.670619797823
-0.544349204661
-0.138700401818
-0.919708547797
-0.20198623236
0.515593797195
-0.564262837256
-0.668946649083
0.0235951956073
0.130200894605
-0.533936889196
-0.580763467599
-0.259502763779
0.763849299602
-0.513417954936
-0.593127540509
-0.0239240795522
0.84471403268
-0.132785188688
0.405842202479
0.651874159178
-0.926188212032
-0.685463160969
0.435743568926
0.709628663722
-0.169619477926
-0.788872394747
-0.603781142495
0.976258436974
0.588299343459
0.464063580627
0.16960533565
-0.675031056323
-0.949960929207
-0.0908475692608
0.028858585421
0.552559380171
-0.093689063067
0.863991090003
0.0322149724843
0.447257651046
-0.378976078466
0.34235992009
-0.0967637512244
-0.827056237798
-0.36140153526
0.832083757707
-0.624317983711
0.5170003223
-0.623820815956
-0.394129487245
-0.118544633461
0.873675104587
0.953677266017
-0.473015466973
0.691995456938
-0.598416801997
-0.0615029282368
-0.878763871656
0.524882053079
-0.0621745577285
-0.521766671668
-0.231833927717
0.690053218053
0.778611590337
-0.333390611281
0.286712981654
-0.0474661643772
0.323104567624
0.856793336443
-0.288878224511
-0.3860337569
-0.156207677658
-0.139080062154
-0.931679672838
-0.625419954861
-0.428878372433
0.475459460953
0.88656338225
0.517758352174
0.415956100944
-0.457505141216
0.470291817648
-0.418790494134
0.120424048479
0.028698031401
0.145038198763
-0.562487459299
0.34827462287
-0.0764453316156
0.465798100354
0.755434230401
-0.219067463651
-0.648844482415
-0.549756534589
0.242866421871
-0.177485929528
0.926507936158
-0.779001705903
-0.01839093933
0.586288860971
0.735699295191
0.857699567284
0.532874632309
0.580897174911
0.943258525561
0.255723107649
-0.979674650419
-0.841867118266
-0.627319341392
-0.922192699683
0.514644681942
-0.838004331736
0.0527239455434
0.74218172078
0.979242090659
0.00440922173264
-0.0620813721272
-0.13898268379
0.193419386726
0.935564398072
0.614091172897
-0.656071875877
-0.00389060922578
0.958529259169
-0.738182327802
-0.928031916652
-0.147923715548
0.0632983469163
0.967615615512
0.850767210586
0.0402462634313
0.441049207044
-0.0195589453717
0.724898639963
0.748410381183
0.0684676391053
-0.806316595979
-0.723480109257
-0.66944172546
-0.591086881721
0.901887278741
0.614180831776
-0.524253754345
-0.384831906355
0.698557816264
-0.261815922666
0.623226503595
0.211723153485
-0.062396579463
-0.700447097945
0.307104628192
0.605377135212
0.670748223812
-0.278221796647
0.0163439162716
-0.702905789168
0.562683795749
0.634604740008
-0.0678815984435
0.663168659431
0.0257428512729
-0.278821928362
0.915008992246
0.618901091314
-0.188076689581
0.93909237623
-0.0635101236748
-0.5209161523
-0.347748396395
-0.672060614649
0.779056625305
0.654125528004
-0.278457636516
0.730301120976
-0.407561978777
-0.245003258355
0.63134608012
-0.00171761503928
0.103212833838
0.862307507264
0.176837849218
0.587978270253
0.361852228718
0.212287759597
0.198314012855
-0.798822595756
-0.861156352042
-0.326349974309
-0.181040409249
0.897738785087
0.596060352754
-0.317491547791
-0.139189893637
-0.525842816236
0.542529408589
-0.68646764223
-0.316499350548
-0.928436354059
-0.178107452009
0.2876606604
0.5809499852
-0.266847891301
-0.689729687288
0.33166741085
-0.68838999666
-0.804212248159
-0.865559455904
-0.628129860339
-0.557039651711
0.30077887473
-0.546658636637
0.163478180009
0.311886344349
-0.376261115592
-0.0363891465444
0.0299531122538
0.306759267606
-0.920320523522
-0.911332890745
-0.161266583783
-0.806123171952
-0.47962766804
0.482726557309
-0.304091186053
0.626601414886
-0.740956727151
0.167022514537
-0.830202324584
-0.0228163450335
-0.48407376444
0.739611965157
0.517040164064
-0.56582471997
-0.0146387618333
0.60837525796
-0.546747881874
-0.499495018338
0.741116137822
-0.0484615264846
-0.480932900394
-0.659212399235
0.153158253282
-0.351576574989
0.442975523764
0.602136022229
-0.154994224465
0.0706003687272
-0.96082964563
-0.321653369148
0.992247491626
-0.686257579977
-0.0940083877152
-0.0754515532733
-0.520037116804
0.339580330205
0.034264102379
-0.740138529202
-0.232655823847
-0.0922834144971
0.193722165605
-0.179673631658
0.455541825834
-0.869265962444
-0.723611799068
-0.412538358824
-0.558335580669
0.50570534048
0.142483179281
-0.847969486484
-0.830029112936
-0.323058623673
-0.368549674195
0.231814608814
-0.362335119551
-0.190219899884
0.107992227888
0.640132637329
-0.775308727562
-0.498801687186
-0.832360160853
-0.221803709651
-0.833373861628
-0.585961224252
0.823685413357
-0.944935274108
-0.509737394183
0.688231947141
0.736461737824
0.313156355975
-0.0954942266899
-0.595026675636
-0.908815865349
-0.409091338885
0.334704547812
-0.929366745431
0.370336239039
0.304444768015
0.00571940426928
-0.481014804081
-0.896704629712
-0.405411993673
-0.215861555122
0.765611860418
0.96611984412
-0.184285382648
-0.95281779138
-0.999417137929
0.797082090221
0.868724690416
0.832265023155
-0.460775652955
-0.72731718445
-0.205045688128
-0.76936445894
-0.432263655379
-0.898483754184
-0.926269992162
-0.89089296105
-0.066188432673
0.521669964229
0.167845508403
0.917684342761
-0.165324823603
-0.736300381954
-0.624872127132
-0.590397228453
-0.958044250332
0.710737802839
-0.629174151941
-0.863551697741
-0.0452217366461
-0.195139704863
0.796655228257
-0.895692841259
-0.826160693177
0.0212804750997
0.508639066628
0.523242708351
0.152548934255
0.430306814682
0.207764798948
0.581566477944
-0.271632627972
-0.980833325173
0.651451827791
-0.56140726445
-0.114921397233
0.584396888194
-0.134519820682
0.984602604986
0.911252402861
-0.437148817632
0.310171768107
-0.626914248414
-0.67150878356
0.874546641838
0.903924638288
0.747739313686
0.0803199832768
0.139222316182
0.387741116696
0.701561098161
0.995114776359
-0.0458277589265
-0.24322868202
0.998622640551
-0.447096920467
-0.0205226841443
-0.499055576227
-0.900763975884
0.711019655045
-0.220237301057
0.50766216542
-0.0851984329708
0.24367580955
-0.607242016983
0.987051743824
0.245729615686
-0.275476846944
-0.518483705308
0.354930012424
-0.550295985465
-0.620272462249
-0.51725020177
0.622142099932
0.052445612793
-0.914599371986
0.0148649576862
-0.606206546055
-0.715237373219
0.496891121299
0.952196607004
0.135112016553
0.364708360723
0.946935810729
-0.1016855652
0.850664993787
-0.182554766879
0.497760766753
0.0795742304075
0.172296081872
0.982423934436
0.638023152397
0.877947371365
-0.846185339279
-0.335766575176
-0.799202184273
0.679041245699
-0.0359038748157
0.00963977151116
-0.569557578156
0.803588527461
0.98069259469
0.0689388206454
0.806637997197
-0.867540932487
-0.281879950645
-0.399238294636
0.97313715177
-0.575932292582
-0.730571831164
0.885606168649
-0.386045242336
-0.797078007505
-0.855807580012
-0.31806277911
-0.803307028967
0.172725057318
0.239405666623
-0.636211957534
0.408620604613
0.230223305499
-0.882755390366
-0.510198384727
-0.388543849034
0.567531233869
-0.944486837626
0.68050141768
0.0376150279336
-0.738158131133
0.574919373146
-0.40563300301
-0.170291639194
-0.936285123117
0.0965079157249
-0.144994133399
-0.725497005893
0.46062860532
-0.0344372649562
-0.42764633915
0.119197781644
-0.665922680766
0.105276879476
-0.334486727948
0.736469598478
-0.962725148189
0.667165538225
0.993113126339
-0.572233108986
-0.132566310794
0.58047466613
-0.0387080243967
-0.420355875662
0.829878038259
-0.310851611694
-0.745612042698
-0.512044268778
0.448259672631
0.491377276372
0.5293357256
0.662843451533
0.764786076569
0.117758340626
0.166269396562
-0.935900281026
-0.245725983744
-0.260533233678
-0.318174325693
0.883596693326
0.563244290781
-0.540057504022
0.656390380788
-0.981046781126
0.875009096848
0.392566830759
-0.421482588247
-0.394793344379
0.0464465545152
-0.681454817234
-0.420183239866
0.82040945714
-0.567787107174
0.621829387998
0.853574626601
0.487220296915
-0.159755738119
0.751876003121
0.803663906639
0.60344458563
0.264601669063
-0.588495024465
0.949286888456
-0.636205838501
0.684256999396
0.357081247214
-0.638925864771
0.431541520094
-0.944736381543
0.328910255141
0.931807332398
-0.619862441909
0.670300651956
0.299628316444
0.394978649189
-0.888221353431
-0.201121214612
0.553888470504
0.35595955494
-0.536287254388
-0.0664097764293
0.236568559493
0.592547527526
-0.979311698331
-0.963624485751
-0.94977371365
-0.313505683719
0.280462378736
0.646223877368
-0.348432026174
-0.376056020258
0.869386855352
-0.864718429766
0.437374996349
-0.161187763003
-0.798110364636
-0.279704702417
-0.201755471712
0.0451326006236
0.330626747978
-0.593441661899
-0.623629517422
-0.96829660877
0.667124989381
-0.678881028196
-0.512451427638
0.650939038901
0.410814024329
0.393567001123
-0.638997009984
-0.117942220918
0.0488831104097
-0.37570596104
-0.654872576695
-0.245009129179
-0.959981506673
0.177604033363
-0.668825617232
0.61087798171
-0.743141730599
0.204218493824
0.583727997354
0.0777195057499
0.611047661551
0.199062871121
-0.497124498746
0.725696029645
-0.573820586923
0.101842254457
-0.652163245378
-0.720610696656
0.607016836731
-0.402459051475
-0.550397058475
0.278214640525
0.545034469261
0.743001756402
0.330701967335
0.935366811961
-0.848402437481
0.783681944267
0.848027665262
-0.762157788652
-0.412019421808
-0.15145893054
-0.765689851035
-0.639241156376
-0.010177018779
-0.847071058678
-0.819080349161
-0.019594178497
0.474523259141
0.500656933853
-0.943662370728
-0.353653098462
-0.855613631667
0.294679247417
0.199263497109
-0.992319540144
0.221496059659
0.805382110202
0.0784534191028
0.922169327755
-0.629388085986
-0.77434900721
-0.847903679915
-0.111371430119
-0.26976329508
-0.0507983319912
-0.343274456883
-0.0231380593997
0.152042401836
0.0682906833644
0.334017305956
-0.11045268821
0.743208072362
-0.159984967071
0.747417816288
0.933320005841
0.952701391248
-0.694574734504
-0.805574319795
0.915338004742
0.677860568182
-0.490965367573
-0.104124536687
-0.214190782909
-0.972082157238
0.25957346633
0.653730190196
0.610519097306
-0.787089308886
-0.046137429536
-0.110128326148
0.0564025669733
-0.434269723594
0.75416202526
-0.210653581779
-0.460536804896
-0.592973834904
-0.458542297377
0.245270952392
0.830971826325
0.881133056602
-0.932887500173
-0.863526021779
0.283890496196
0.618761825542
0.538536466552
-0.0105901214551
0.133053468847
-0.74827854563
-0.197119327627
0.00838622996638
-0.00050865158533
0.980600889457
-0.92348125949
0.996127020556
0.868501831613
-0.346609945733
-0.76407579469
-0.601530968812
0.284134996169
0.362677418848
-0.0151278500059
0.244852536136
-0.397512294948
-0.101775451422
-0.778749855091
-0.722709185348
0.439029464507
-0.941771007895
-0.525600554991
-0.0605658172418
-0.237852172822
-0.309963713063
-0.716622354933
-0.998958639894
-0.469315390829
0.268231784533
-0.673046876938
0.9598752546
0.763495991566
-0.879643578589
-0.5429596043
0.605515466916
0.274336312777
-0.161493595639
-0.928321433398
-0.333800028542
0.308765632554
-0.814614435082
-0.178540792187
-0.372328937028
-0.749548559012
-0.49741925343
0.651000349582
-0.0472215378923
0.838916174566
0.190923245052
0.0580941796472
-0.410089204252
0.604228039986
-0.00213539681467
0.909438471237
-0.680745965722
-0.463751440675
0.602576312568
0.980247899013
-0.653780757276
-0.815346812094
0.504719265767
0.711748845569
-0.878472121273
-0.472343288126
0.695278737835
-0.16683301714
0.173901772722
-0.66555415735
0.552174052691
0.00641057937902
0.355095745597
0.680829482582
0.232643468903
-0.441207924597
-0.641222049039
-0.271467629348
-0.833272449506
-0.945641439451
-0.574583138122
0.742977304785
0.511775976377
0.955960306302
-0.31553634186
0.0608792484316
-0.80618831109
0.897674308134
-0.940402207752
-0.953956533461
0.0354506325809
0.933248256878
-0.125017453261
-0.393672095461
0.696951484701
0.0112417164413
0.963882514921
0.869500333342
-0.0357579410137
-0.755153207208
0.225777533462
0.593271560681
-0.285505626874
0.413584790794
0.876120870118
-0.722779374722
0.0777689749294
0.0739127780327
-0.733104222226
-0.931550703211
0.950048369241
-0.367308899142
-0.13890832222
0.501250095615
0.168131566175
0.0211846096088
-0.187204493177
-0.922907538825
-0.522209861648
-0.448658787787
-0.42134568104
-0.836886142278
0.308841703347
-0.489597963485
0.573110413095
-0.202096321836
0.531679909414
0.360340340542
-0.0172673028784
-0.0830228726034
0.565546884902
-0.0992427902975
0.0306365130084
-0.534240489809
-0.724360380999
-0.191108020692
0.550764523879
-0.154232799977
0.5557768078
0.92298706376
-0.41548317551
-0.915574570161
0.732200773663
-0.0992115103738
-0.476210869139
0.869245675038
-0.950516231267
0.131977092063
-0.715081462114
-0.959438955949
-0.812405861755
0.988019513896
0.199019966749
-0.0260978870874
0.118202232253
-0.736616750829
-0.837880934309
-0.171647800623
0.240257155537
0.958080231853
0.886414518532
0.852043483223
-0.0286398864238
-0.943402738338
-0.944463169084
0.214682211718
0.0250044044879
-0.65848139151
0.752472591468
0.462562528674
0.861830143699
0.110586677696
-0.0721933868521
0.735930402836
0.927164903315
0.394059733113
0.61068584396
0.522125719002
-0.0681092181709
0.486277787632
-0.0493976076165
6.81226658192e-05
-0.758162253211
0.20688545198
0.144910322012
-0.874319116675
0.775461640205
-0.959037805428
0.916896272358
0.608940694412
0.132047205948
-0.53027744403
0.290329175495
-0.300721238226
0.0314162989842
0.898575224904
0.31463945701
-0.291224745648
-0.94293512274
-0.605974445828
-0.0959226163921
-0.772967467112
-0.233125353576
0.421363498283
-0.297160382239
0.748073382342
-0.108510411148
0.312677967492
0.891024248567
-0.274897617263
0.472458830887
-0.802425506612
0.178841605516
-0.241668813583
0.871248106328
0.493829412989
-0.826539856162
-0.71201461482
-0.293848746291
0.194639684621
0.879828606432
0.687629967102
-0.792249041801
0.00684176974542
0.71544432398
0.783243764184
0.00639063552626
-0.394147316414
-0.0346361875237
-0.656704996961
0.453786024375
0.54577942538
-0.511293189188
0.276167179055
-0.922600244281
-0.627591970952
0.317971692654
0.726155608464
-0.213542607395
0.519279648092
-0.358866607914
0.499410176935
-0.0355303965969
-0.0485717631297
0.0156215769494
-0.157469653907
-0.187643175478
-0.526466937392
-0.206930877854
0.158964278596
0.86764180961
0.425520224813
-0.734870834025
-0.722895959932
0.407758953749
-0.434567312033
0.180309750646
-0.00509052547225
0.380555028571
-0.892757731201
0.0422374297342
-0.539446252843
0.269317414817
-0.917796332533
-0.0642718312204
-0.74076966394
0.293716095391
-0.693804233694
-0.741129593917
-0.714266664438
0.638523488274
0.974823612902
0.276928450303
-0.703621666605
0.781753412014
-0.145501448413
-0.779948837536
-0.329439543
0.261434848717
0.044012665752
0.303009760527
0.887022817314
-0.387398403607
0.58100420244
0.93195040038
-0.693689401673
-0.869588843673
0.0277899926066
-0.481904119933
-0.907141146342
0.872175704524
-0.482443144982
0.11397374361
0.999239854502
-0.962293262693
-0.193060771115
-0.184013736528
0.198614615358
-0.324984021665
0.928570192887
0.658986101584
-0.647853296437
0.206532327491
-0.337537645848
0.374636254701
-0.62618297746
0.406924044163
0.328880474279
-0.880123316193
-0.31936363555
-0.308291865937
0.916147493324
0.51481074241
0.134869832669
-0.783813709073
-0.689487145925
-0.673626845908
0.847891516718
0.772148448944
-0.923064992444
-0.467511118858
0.126632669497
-0.0139517134989
0.839946901239
-0.249775022001
0.888737064803
-0.983026234227
0.778559418876
0.573853711402
-0.610697723141
0.152576320561
0.699754927869
-0.653381677047
-0.610206051225
0.792104415647
0.703275674134
0.332298592661
0.396555563796
0.128024837631
0.097465363345
-0.754853186935
-0.654243327009
0.313453259267
0.0938977956298
0.00549835662917
0.591494043776
-0.0404806601016
0.890228766423
0.423675119402
-0.278834349763
0.207561557363
-0.682375717927
-0.134820538101
0.718404192096
0.977920502001
0.329191172229
0.14019179158
0.905714563537
-0.385845969263
0.267485425506
0.316347686478
-0.701295950469
0.560774836593
-0.269497500097
0.781660497774
0.569723580757
0.225782316729
-0.304647870492
0.912782559075
0.544972968049
-0.652454933629
0.330836588923
0.0181290549129
-0.0729688303642
0.445821393835
0.166695490743
-0.00828789464371
0.198801300477
0.4712418189
0.86722889298
-0.856651339393
0.378989847696
0.470801156294
-0.908488140954
-0.499155990863
-0.507340718524
0.322295087231
0.479252579755
0.23679077235
-0.475403045295
0.755203535724
-0.0188698257369
0.733628207377
-0.451657056932
0.163123875401
0.731041909485
-0.181363065687
0.437900864891
0.92194671605
-0.327671603501
-0.453128419678
0.0193506198786
0.604049920901
-0.607059046771
-0.0212574030873
0.402381123438
-0.301454623138
0.124417243275
-0.350227662206
-0.878406314938
-0.110985104971
0.828883177271
0.565069546066
0.792694172422
-0.253470679554
0.76375638529
0.200406141298
-0.542277049777
-0.379452168759
-0.876001452549
-0.140475600303
-0.993625313547
0.954137781653
-0.736200568429
-0.503683917892
-0.546872931784
0.867370600697
-0.328988495215
-0.144825507016
0.722330251786
-0.60776682734
-0.461122002123
-0.0555293968505
-0.675339816627
0.117514479027
0.812111668446
0.645863286436
0.379594049937
-0.673254391599
0.0869244002602
-0.931978660691
-0.824683473984
0.714184626737
-0.756363882621
0.423744806414
0.0123017172829
0.63267772809
-0.115427448051
0.287335341873
0.714479082547
-0.204864385082
0.979151185836
0.840755486548
-0.310200217816
-0.926751731727
-0.432862872555
0.724484825123
-0.47937903198
0.671971440738
-0.917042933309
0.0648261938391
-0.71566175636
0.104887772883
-0.69605357991
0.796827648049
-0.343942054825
0.469858387349
0.793711072239
-0.203346664024
0.788759044871
-0.924047461171
0.978322036782
-0.911396834
-0.849552565111
-0.89736335769
0.590654690396
-0.843598953628
-0.522771506513
-0.289451523873
-0.468875786677
0.352898295934
-0.709889876479
0.149425395937
-0.410931382226
0.383921794987
0.211680933953
-0.219461881704
-0.341447348837
0.527744538661
0.215212352645
0.141814611158
-0.257106675932
-0.557856537721
-4.94198948486e-05
-0.142062755018
0.848960403987
-0.777822951341
-0.129270482253
-0.0782319747633
-0.616580186427
0.917552782189
-0.588253837072
-0.296713671603
0.719023901368
-0.494476779464
0.807642671712
-0.811724417012
-0.979678398718
0.855966139177
-0.0540309408246
-0.129223811644
0.743228876686
0.876525543706
-0.782500137023
0.441587770097
-0.626180051633
0.533295445824
-0.441052807511
-0.662228464047
0.709222942622
-0.844422126171
-0.518782674668
-0.59976253027
0.242206422607
-0.855648455208
0.868854032038
-0.715288001066
0.779626850712
0.974532784638
-0.954078518215
0.840106751792
-0.512410749488
0.0325688010411
0.966416905456
-0.10752279273
0.790922372229
0.822981869889
0.406017409426
-0.901121301537
0.449633881344
-0.387566864466
-0.524405154969
0.0873467708365
-0.302869523876
-0.479047397843
-0.790541440354
0.374207385863
0.654697142921
0.757953881787
0.784431184791
-0.0844725280055
-0.513650761162
0.15666311653
0.758116934037
0.0904359292797
0.903260785028
0.0511474280582
0.414689083836
0.821576208385
0.817397485236
0.639727203557
-0.32095745394
-0.203058110608
0.904612176669
0.63701699709
0.0417691056178
-0.956279822487
0.184885015085
0.0440984345792
0.127940655485
-0.684614886766
-0.972398708829
-0.370028554295
0.75465544456
-0.244210965073
0.921956088347
-0.589812983803
-0.0351037981844
0.431411593268
0.337571698194
-0.427680835131
-0.568329170809
-0.257495661264
0.0835047288533
0.972251536215
-0.0208291510205
-0.0761286474828
0.939840737214
0.353497905589
0.712062070408
-0.995426663556
0.335780526388
-0.947034312999
-0.604765630721
0.33073101924
-0.981507436437
0.505161412285
0.282140821091
-0.286627233723
0.561952520097
0.601036882195
-0.554781355777
-0.125159005653
0.515584369408
0.930022617236
0.928816469472
-0.599890190259